    1C
    1UUSER                                                              
    1UDATE              23.may.2026                                     
    1UTIME              13:55:59                                        
    1UHOST                                                              
    1UPGM               CalculiX                                        
    1UVERSION           Version 2.22                             
    1UCOMPILETIME       Mon Aug  5 19:15:25 CEST 2024                    
    1UDIR                                                               
    1UDBN                                                               
    1UMAT    1STAHL                                                     
    2C                           336                                     1
 -1         1 0.00000E+00 0.00000E+00 0.00000E+00
 -1         2 1.00000E+01 0.00000E+00 0.00000E+00
 -1         3 2.00000E+01 0.00000E+00 0.00000E+00
 -1         4 3.00000E+01 0.00000E+00 0.00000E+00
 -1         5 4.00000E+01 0.00000E+00 0.00000E+00
 -1         6 5.00000E+01 0.00000E+00 0.00000E+00
 -1         7 6.00000E+01 0.00000E+00 0.00000E+00
 -1         8 7.00000E+01 0.00000E+00 0.00000E+00
 -1         9 8.00000E+01 0.00000E+00 0.00000E+00
 -1        10 9.00000E+01 0.00000E+00 0.00000E+00
 -1        11 1.00000E+02 0.00000E+00 0.00000E+00
 -1        12 1.10000E+02 0.00000E+00 0.00000E+00
 -1        13 1.20000E+02 0.00000E+00 0.00000E+00
 -1        14 1.30000E+02 0.00000E+00 0.00000E+00
 -1        15 1.40000E+02 0.00000E+00 0.00000E+00
 -1        16 1.50000E+02 0.00000E+00 0.00000E+00
 -1        17 1.60000E+02 0.00000E+00 0.00000E+00
 -1        18 1.70000E+02 0.00000E+00 0.00000E+00
 -1        19 1.80000E+02 0.00000E+00 0.00000E+00
 -1        20 1.90000E+02 0.00000E+00 0.00000E+00
 -1        21 2.00000E+02 0.00000E+00 0.00000E+00
 -1        22 0.00000E+00 1.00000E+01 0.00000E+00
 -1        23 1.00000E+01 1.00000E+01 0.00000E+00
 -1        24 2.00000E+01 1.00000E+01 0.00000E+00
 -1        25 3.00000E+01 1.00000E+01 0.00000E+00
 -1        26 4.00000E+01 1.00000E+01 0.00000E+00
 -1        27 5.00000E+01 1.00000E+01 0.00000E+00
 -1        28 6.00000E+01 1.00000E+01 0.00000E+00
 -1        29 7.00000E+01 1.00000E+01 0.00000E+00
 -1        30 8.00000E+01 1.00000E+01 0.00000E+00
 -1        31 9.00000E+01 1.00000E+01 0.00000E+00
 -1        32 1.00000E+02 1.00000E+01 0.00000E+00
 -1        33 1.10000E+02 1.00000E+01 0.00000E+00
 -1        34 1.20000E+02 1.00000E+01 0.00000E+00
 -1        35 1.30000E+02 1.00000E+01 0.00000E+00
 -1        36 1.40000E+02 1.00000E+01 0.00000E+00
 -1        37 1.50000E+02 1.00000E+01 0.00000E+00
 -1        38 1.60000E+02 1.00000E+01 0.00000E+00
 -1        39 1.70000E+02 1.00000E+01 0.00000E+00
 -1        40 1.80000E+02 1.00000E+01 0.00000E+00
 -1        41 1.90000E+02 1.00000E+01 0.00000E+00
 -1        42 2.00000E+02 1.00000E+01 0.00000E+00
 -1        43 0.00000E+00 2.00000E+01 0.00000E+00
 -1        44 1.00000E+01 2.00000E+01 0.00000E+00
 -1        45 2.00000E+01 2.00000E+01 0.00000E+00
 -1        46 3.00000E+01 2.00000E+01 0.00000E+00
 -1        47 4.00000E+01 2.00000E+01 0.00000E+00
 -1        48 5.00000E+01 2.00000E+01 0.00000E+00
 -1        49 6.00000E+01 2.00000E+01 0.00000E+00
 -1        50 7.00000E+01 2.00000E+01 0.00000E+00
 -1        51 8.00000E+01 2.00000E+01 0.00000E+00
 -1        52 9.00000E+01 2.00000E+01 0.00000E+00
 -1        53 1.00000E+02 2.00000E+01 0.00000E+00
 -1        54 1.10000E+02 2.00000E+01 0.00000E+00
 -1        55 1.20000E+02 2.00000E+01 0.00000E+00
 -1        56 1.30000E+02 2.00000E+01 0.00000E+00
 -1        57 1.40000E+02 2.00000E+01 0.00000E+00
 -1        58 1.50000E+02 2.00000E+01 0.00000E+00
 -1        59 1.60000E+02 2.00000E+01 0.00000E+00
 -1        60 1.70000E+02 2.00000E+01 0.00000E+00
 -1        61 1.80000E+02 2.00000E+01 0.00000E+00
 -1        62 1.90000E+02 2.00000E+01 0.00000E+00
 -1        63 2.00000E+02 2.00000E+01 0.00000E+00
 -1        64 0.00000E+00 3.00000E+01 0.00000E+00
 -1        65 1.00000E+01 3.00000E+01 0.00000E+00
 -1        66 2.00000E+01 3.00000E+01 0.00000E+00
 -1        67 3.00000E+01 3.00000E+01 0.00000E+00
 -1        68 4.00000E+01 3.00000E+01 0.00000E+00
 -1        69 5.00000E+01 3.00000E+01 0.00000E+00
 -1        70 6.00000E+01 3.00000E+01 0.00000E+00
 -1        71 7.00000E+01 3.00000E+01 0.00000E+00
 -1        72 8.00000E+01 3.00000E+01 0.00000E+00
 -1        73 9.00000E+01 3.00000E+01 0.00000E+00
 -1        74 1.00000E+02 3.00000E+01 0.00000E+00
 -1        75 1.10000E+02 3.00000E+01 0.00000E+00
 -1        76 1.20000E+02 3.00000E+01 0.00000E+00
 -1        77 1.30000E+02 3.00000E+01 0.00000E+00
 -1        78 1.40000E+02 3.00000E+01 0.00000E+00
 -1        79 1.50000E+02 3.00000E+01 0.00000E+00
 -1        80 1.60000E+02 3.00000E+01 0.00000E+00
 -1        81 1.70000E+02 3.00000E+01 0.00000E+00
 -1        82 1.80000E+02 3.00000E+01 0.00000E+00
 -1        83 1.90000E+02 3.00000E+01 0.00000E+00
 -1        84 2.00000E+02 3.00000E+01 0.00000E+00
 -1        85 0.00000E+00 0.00000E+00 1.00000E+01
 -1        86 1.00000E+01 0.00000E+00 1.00000E+01
 -1        87 2.00000E+01 0.00000E+00 1.00000E+01
 -1        88 3.00000E+01 0.00000E+00 1.00000E+01
 -1        89 4.00000E+01 0.00000E+00 1.00000E+01
 -1        90 5.00000E+01 0.00000E+00 1.00000E+01
 -1        91 6.00000E+01 0.00000E+00 1.00000E+01
 -1        92 7.00000E+01 0.00000E+00 1.00000E+01
 -1        93 8.00000E+01 0.00000E+00 1.00000E+01
 -1        94 9.00000E+01 0.00000E+00 1.00000E+01
 -1        95 1.00000E+02 0.00000E+00 1.00000E+01
 -1        96 1.10000E+02 0.00000E+00 1.00000E+01
 -1        97 1.20000E+02 0.00000E+00 1.00000E+01
 -1        98 1.30000E+02 0.00000E+00 1.00000E+01
 -1        99 1.40000E+02 0.00000E+00 1.00000E+01
 -1       100 1.50000E+02 0.00000E+00 1.00000E+01
 -1       101 1.60000E+02 0.00000E+00 1.00000E+01
 -1       102 1.70000E+02 0.00000E+00 1.00000E+01
 -1       103 1.80000E+02 0.00000E+00 1.00000E+01
 -1       104 1.90000E+02 0.00000E+00 1.00000E+01
 -1       105 2.00000E+02 0.00000E+00 1.00000E+01
 -1       106 0.00000E+00 1.00000E+01 1.00000E+01
 -1       107 1.00000E+01 1.00000E+01 1.00000E+01
 -1       108 2.00000E+01 1.00000E+01 1.00000E+01
 -1       109 3.00000E+01 1.00000E+01 1.00000E+01
 -1       110 4.00000E+01 1.00000E+01 1.00000E+01
 -1       111 5.00000E+01 1.00000E+01 1.00000E+01
 -1       112 6.00000E+01 1.00000E+01 1.00000E+01
 -1       113 7.00000E+01 1.00000E+01 1.00000E+01
 -1       114 8.00000E+01 1.00000E+01 1.00000E+01
 -1       115 9.00000E+01 1.00000E+01 1.00000E+01
 -1       116 1.00000E+02 1.00000E+01 1.00000E+01
 -1       117 1.10000E+02 1.00000E+01 1.00000E+01
 -1       118 1.20000E+02 1.00000E+01 1.00000E+01
 -1       119 1.30000E+02 1.00000E+01 1.00000E+01
 -1       120 1.40000E+02 1.00000E+01 1.00000E+01
 -1       121 1.50000E+02 1.00000E+01 1.00000E+01
 -1       122 1.60000E+02 1.00000E+01 1.00000E+01
 -1       123 1.70000E+02 1.00000E+01 1.00000E+01
 -1       124 1.80000E+02 1.00000E+01 1.00000E+01
 -1       125 1.90000E+02 1.00000E+01 1.00000E+01
 -1       126 2.00000E+02 1.00000E+01 1.00000E+01
 -1       127 0.00000E+00 2.00000E+01 1.00000E+01
 -1       128 1.00000E+01 2.00000E+01 1.00000E+01
 -1       129 2.00000E+01 2.00000E+01 1.00000E+01
 -1       130 3.00000E+01 2.00000E+01 1.00000E+01
 -1       131 4.00000E+01 2.00000E+01 1.00000E+01
 -1       132 5.00000E+01 2.00000E+01 1.00000E+01
 -1       133 6.00000E+01 2.00000E+01 1.00000E+01
 -1       134 7.00000E+01 2.00000E+01 1.00000E+01
 -1       135 8.00000E+01 2.00000E+01 1.00000E+01
 -1       136 9.00000E+01 2.00000E+01 1.00000E+01
 -1       137 1.00000E+02 2.00000E+01 1.00000E+01
 -1       138 1.10000E+02 2.00000E+01 1.00000E+01
 -1       139 1.20000E+02 2.00000E+01 1.00000E+01
 -1       140 1.30000E+02 2.00000E+01 1.00000E+01
 -1       141 1.40000E+02 2.00000E+01 1.00000E+01
 -1       142 1.50000E+02 2.00000E+01 1.00000E+01
 -1       143 1.60000E+02 2.00000E+01 1.00000E+01
 -1       144 1.70000E+02 2.00000E+01 1.00000E+01
 -1       145 1.80000E+02 2.00000E+01 1.00000E+01
 -1       146 1.90000E+02 2.00000E+01 1.00000E+01
 -1       147 2.00000E+02 2.00000E+01 1.00000E+01
 -1       148 0.00000E+00 3.00000E+01 1.00000E+01
 -1       149 1.00000E+01 3.00000E+01 1.00000E+01
 -1       150 2.00000E+01 3.00000E+01 1.00000E+01
 -1       151 3.00000E+01 3.00000E+01 1.00000E+01
 -1       152 4.00000E+01 3.00000E+01 1.00000E+01
 -1       153 5.00000E+01 3.00000E+01 1.00000E+01
 -1       154 6.00000E+01 3.00000E+01 1.00000E+01
 -1       155 7.00000E+01 3.00000E+01 1.00000E+01
 -1       156 8.00000E+01 3.00000E+01 1.00000E+01
 -1       157 9.00000E+01 3.00000E+01 1.00000E+01
 -1       158 1.00000E+02 3.00000E+01 1.00000E+01
 -1       159 1.10000E+02 3.00000E+01 1.00000E+01
 -1       160 1.20000E+02 3.00000E+01 1.00000E+01
 -1       161 1.30000E+02 3.00000E+01 1.00000E+01
 -1       162 1.40000E+02 3.00000E+01 1.00000E+01
 -1       163 1.50000E+02 3.00000E+01 1.00000E+01
 -1       164 1.60000E+02 3.00000E+01 1.00000E+01
 -1       165 1.70000E+02 3.00000E+01 1.00000E+01
 -1       166 1.80000E+02 3.00000E+01 1.00000E+01
 -1       167 1.90000E+02 3.00000E+01 1.00000E+01
 -1       168 2.00000E+02 3.00000E+01 1.00000E+01
 -1       169 0.00000E+00 0.00000E+00 2.00000E+01
 -1       170 1.00000E+01 0.00000E+00 2.00000E+01
 -1       171 2.00000E+01 0.00000E+00 2.00000E+01
 -1       172 3.00000E+01 0.00000E+00 2.00000E+01
 -1       173 4.00000E+01 0.00000E+00 2.00000E+01
 -1       174 5.00000E+01 0.00000E+00 2.00000E+01
 -1       175 6.00000E+01 0.00000E+00 2.00000E+01
 -1       176 7.00000E+01 0.00000E+00 2.00000E+01
 -1       177 8.00000E+01 0.00000E+00 2.00000E+01
 -1       178 9.00000E+01 0.00000E+00 2.00000E+01
 -1       179 1.00000E+02 0.00000E+00 2.00000E+01
 -1       180 1.10000E+02 0.00000E+00 2.00000E+01
 -1       181 1.20000E+02 0.00000E+00 2.00000E+01
 -1       182 1.30000E+02 0.00000E+00 2.00000E+01
 -1       183 1.40000E+02 0.00000E+00 2.00000E+01
 -1       184 1.50000E+02 0.00000E+00 2.00000E+01
 -1       185 1.60000E+02 0.00000E+00 2.00000E+01
 -1       186 1.70000E+02 0.00000E+00 2.00000E+01
 -1       187 1.80000E+02 0.00000E+00 2.00000E+01
 -1       188 1.90000E+02 0.00000E+00 2.00000E+01
 -1       189 2.00000E+02 0.00000E+00 2.00000E+01
 -1       190 0.00000E+00 1.00000E+01 2.00000E+01
 -1       191 1.00000E+01 1.00000E+01 2.00000E+01
 -1       192 2.00000E+01 1.00000E+01 2.00000E+01
 -1       193 3.00000E+01 1.00000E+01 2.00000E+01
 -1       194 4.00000E+01 1.00000E+01 2.00000E+01
 -1       195 5.00000E+01 1.00000E+01 2.00000E+01
 -1       196 6.00000E+01 1.00000E+01 2.00000E+01
 -1       197 7.00000E+01 1.00000E+01 2.00000E+01
 -1       198 8.00000E+01 1.00000E+01 2.00000E+01
 -1       199 9.00000E+01 1.00000E+01 2.00000E+01
 -1       200 1.00000E+02 1.00000E+01 2.00000E+01
 -1       201 1.10000E+02 1.00000E+01 2.00000E+01
 -1       202 1.20000E+02 1.00000E+01 2.00000E+01
 -1       203 1.30000E+02 1.00000E+01 2.00000E+01
 -1       204 1.40000E+02 1.00000E+01 2.00000E+01
 -1       205 1.50000E+02 1.00000E+01 2.00000E+01
 -1       206 1.60000E+02 1.00000E+01 2.00000E+01
 -1       207 1.70000E+02 1.00000E+01 2.00000E+01
 -1       208 1.80000E+02 1.00000E+01 2.00000E+01
 -1       209 1.90000E+02 1.00000E+01 2.00000E+01
 -1       210 2.00000E+02 1.00000E+01 2.00000E+01
 -1       211 0.00000E+00 2.00000E+01 2.00000E+01
 -1       212 1.00000E+01 2.00000E+01 2.00000E+01
 -1       213 2.00000E+01 2.00000E+01 2.00000E+01
 -1       214 3.00000E+01 2.00000E+01 2.00000E+01
 -1       215 4.00000E+01 2.00000E+01 2.00000E+01
 -1       216 5.00000E+01 2.00000E+01 2.00000E+01
 -1       217 6.00000E+01 2.00000E+01 2.00000E+01
 -1       218 7.00000E+01 2.00000E+01 2.00000E+01
 -1       219 8.00000E+01 2.00000E+01 2.00000E+01
 -1       220 9.00000E+01 2.00000E+01 2.00000E+01
 -1       221 1.00000E+02 2.00000E+01 2.00000E+01
 -1       222 1.10000E+02 2.00000E+01 2.00000E+01
 -1       223 1.20000E+02 2.00000E+01 2.00000E+01
 -1       224 1.30000E+02 2.00000E+01 2.00000E+01
 -1       225 1.40000E+02 2.00000E+01 2.00000E+01
 -1       226 1.50000E+02 2.00000E+01 2.00000E+01
 -1       227 1.60000E+02 2.00000E+01 2.00000E+01
 -1       228 1.70000E+02 2.00000E+01 2.00000E+01
 -1       229 1.80000E+02 2.00000E+01 2.00000E+01
 -1       230 1.90000E+02 2.00000E+01 2.00000E+01
 -1       231 2.00000E+02 2.00000E+01 2.00000E+01
 -1       232 0.00000E+00 3.00000E+01 2.00000E+01
 -1       233 1.00000E+01 3.00000E+01 2.00000E+01
 -1       234 2.00000E+01 3.00000E+01 2.00000E+01
 -1       235 3.00000E+01 3.00000E+01 2.00000E+01
 -1       236 4.00000E+01 3.00000E+01 2.00000E+01
 -1       237 5.00000E+01 3.00000E+01 2.00000E+01
 -1       238 6.00000E+01 3.00000E+01 2.00000E+01
 -1       239 7.00000E+01 3.00000E+01 2.00000E+01
 -1       240 8.00000E+01 3.00000E+01 2.00000E+01
 -1       241 9.00000E+01 3.00000E+01 2.00000E+01
 -1       242 1.00000E+02 3.00000E+01 2.00000E+01
 -1       243 1.10000E+02 3.00000E+01 2.00000E+01
 -1       244 1.20000E+02 3.00000E+01 2.00000E+01
 -1       245 1.30000E+02 3.00000E+01 2.00000E+01
 -1       246 1.40000E+02 3.00000E+01 2.00000E+01
 -1       247 1.50000E+02 3.00000E+01 2.00000E+01
 -1       248 1.60000E+02 3.00000E+01 2.00000E+01
 -1       249 1.70000E+02 3.00000E+01 2.00000E+01
 -1       250 1.80000E+02 3.00000E+01 2.00000E+01
 -1       251 1.90000E+02 3.00000E+01 2.00000E+01
 -1       252 2.00000E+02 3.00000E+01 2.00000E+01
 -1       253 0.00000E+00 0.00000E+00 3.00000E+01
 -1       254 1.00000E+01 0.00000E+00 3.00000E+01
 -1       255 2.00000E+01 0.00000E+00 3.00000E+01
 -1       256 3.00000E+01 0.00000E+00 3.00000E+01
 -1       257 4.00000E+01 0.00000E+00 3.00000E+01
 -1       258 5.00000E+01 0.00000E+00 3.00000E+01
 -1       259 6.00000E+01 0.00000E+00 3.00000E+01
 -1       260 7.00000E+01 0.00000E+00 3.00000E+01
 -1       261 8.00000E+01 0.00000E+00 3.00000E+01
 -1       262 9.00000E+01 0.00000E+00 3.00000E+01
 -1       263 1.00000E+02 0.00000E+00 3.00000E+01
 -1       264 1.10000E+02 0.00000E+00 3.00000E+01
 -1       265 1.20000E+02 0.00000E+00 3.00000E+01
 -1       266 1.30000E+02 0.00000E+00 3.00000E+01
 -1       267 1.40000E+02 0.00000E+00 3.00000E+01
 -1       268 1.50000E+02 0.00000E+00 3.00000E+01
 -1       269 1.60000E+02 0.00000E+00 3.00000E+01
 -1       270 1.70000E+02 0.00000E+00 3.00000E+01
 -1       271 1.80000E+02 0.00000E+00 3.00000E+01
 -1       272 1.90000E+02 0.00000E+00 3.00000E+01
 -1       273 2.00000E+02 0.00000E+00 3.00000E+01
 -1       274 0.00000E+00 1.00000E+01 3.00000E+01
 -1       275 1.00000E+01 1.00000E+01 3.00000E+01
 -1       276 2.00000E+01 1.00000E+01 3.00000E+01
 -1       277 3.00000E+01 1.00000E+01 3.00000E+01
 -1       278 4.00000E+01 1.00000E+01 3.00000E+01
 -1       279 5.00000E+01 1.00000E+01 3.00000E+01
 -1       280 6.00000E+01 1.00000E+01 3.00000E+01
 -1       281 7.00000E+01 1.00000E+01 3.00000E+01
 -1       282 8.00000E+01 1.00000E+01 3.00000E+01
 -1       283 9.00000E+01 1.00000E+01 3.00000E+01
 -1       284 1.00000E+02 1.00000E+01 3.00000E+01
 -1       285 1.10000E+02 1.00000E+01 3.00000E+01
 -1       286 1.20000E+02 1.00000E+01 3.00000E+01
 -1       287 1.30000E+02 1.00000E+01 3.00000E+01
 -1       288 1.40000E+02 1.00000E+01 3.00000E+01
 -1       289 1.50000E+02 1.00000E+01 3.00000E+01
 -1       290 1.60000E+02 1.00000E+01 3.00000E+01
 -1       291 1.70000E+02 1.00000E+01 3.00000E+01
 -1       292 1.80000E+02 1.00000E+01 3.00000E+01
 -1       293 1.90000E+02 1.00000E+01 3.00000E+01
 -1       294 2.00000E+02 1.00000E+01 3.00000E+01
 -1       295 0.00000E+00 2.00000E+01 3.00000E+01
 -1       296 1.00000E+01 2.00000E+01 3.00000E+01
 -1       297 2.00000E+01 2.00000E+01 3.00000E+01
 -1       298 3.00000E+01 2.00000E+01 3.00000E+01
 -1       299 4.00000E+01 2.00000E+01 3.00000E+01
 -1       300 5.00000E+01 2.00000E+01 3.00000E+01
 -1       301 6.00000E+01 2.00000E+01 3.00000E+01
 -1       302 7.00000E+01 2.00000E+01 3.00000E+01
 -1       303 8.00000E+01 2.00000E+01 3.00000E+01
 -1       304 9.00000E+01 2.00000E+01 3.00000E+01
 -1       305 1.00000E+02 2.00000E+01 3.00000E+01
 -1       306 1.10000E+02 2.00000E+01 3.00000E+01
 -1       307 1.20000E+02 2.00000E+01 3.00000E+01
 -1       308 1.30000E+02 2.00000E+01 3.00000E+01
 -1       309 1.40000E+02 2.00000E+01 3.00000E+01
 -1       310 1.50000E+02 2.00000E+01 3.00000E+01
 -1       311 1.60000E+02 2.00000E+01 3.00000E+01
 -1       312 1.70000E+02 2.00000E+01 3.00000E+01
 -1       313 1.80000E+02 2.00000E+01 3.00000E+01
 -1       314 1.90000E+02 2.00000E+01 3.00000E+01
 -1       315 2.00000E+02 2.00000E+01 3.00000E+01
 -1       316 0.00000E+00 3.00000E+01 3.00000E+01
 -1       317 1.00000E+01 3.00000E+01 3.00000E+01
 -1       318 2.00000E+01 3.00000E+01 3.00000E+01
 -1       319 3.00000E+01 3.00000E+01 3.00000E+01
 -1       320 4.00000E+01 3.00000E+01 3.00000E+01
 -1       321 5.00000E+01 3.00000E+01 3.00000E+01
 -1       322 6.00000E+01 3.00000E+01 3.00000E+01
 -1       323 7.00000E+01 3.00000E+01 3.00000E+01
 -1       324 8.00000E+01 3.00000E+01 3.00000E+01
 -1       325 9.00000E+01 3.00000E+01 3.00000E+01
 -1       326 1.00000E+02 3.00000E+01 3.00000E+01
 -1       327 1.10000E+02 3.00000E+01 3.00000E+01
 -1       328 1.20000E+02 3.00000E+01 3.00000E+01
 -1       329 1.30000E+02 3.00000E+01 3.00000E+01
 -1       330 1.40000E+02 3.00000E+01 3.00000E+01
 -1       331 1.50000E+02 3.00000E+01 3.00000E+01
 -1       332 1.60000E+02 3.00000E+01 3.00000E+01
 -1       333 1.70000E+02 3.00000E+01 3.00000E+01
 -1       334 1.80000E+02 3.00000E+01 3.00000E+01
 -1       335 1.90000E+02 3.00000E+01 3.00000E+01
 -1       336 2.00000E+02 3.00000E+01 3.00000E+01
 -3
    3C                           180                                     1
 -1         1    1    0    1
 -2         1         2        23        22        85        86       107       106
 -1         2    1    0    1
 -2        85        86       107       106       169       170       191       190
 -1         3    1    0    1
 -2       169       170       191       190       253       254       275       274
 -1         4    1    0    1
 -2        22        23        44        43       106       107       128       127
 -1         5    1    0    1
 -2       106       107       128       127       190       191       212       211
 -1         6    1    0    1
 -2       190       191       212       211       274       275       296       295
 -1         7    1    0    1
 -2        43        44        65        64       127       128       149       148
 -1         8    1    0    1
 -2       127       128       149       148       211       212       233       232
 -1         9    1    0    1
 -2       211       212       233       232       295       296       317       316
 -1        10    1    0    1
 -2         2         3        24        23        86        87       108       107
 -1        11    1    0    1
 -2        86        87       108       107       170       171       192       191
 -1        12    1    0    1
 -2       170       171       192       191       254       255       276       275
 -1        13    1    0    1
 -2        23        24        45        44       107       108       129       128
 -1        14    1    0    1
 -2       107       108       129       128       191       192       213       212
 -1        15    1    0    1
 -2       191       192       213       212       275       276       297       296
 -1        16    1    0    1
 -2        44        45        66        65       128       129       150       149
 -1        17    1    0    1
 -2       128       129       150       149       212       213       234       233
 -1        18    1    0    1
 -2       212       213       234       233       296       297       318       317
 -1        19    1    0    1
 -2         3         4        25        24        87        88       109       108
 -1        20    1    0    1
 -2        87        88       109       108       171       172       193       192
 -1        21    1    0    1
 -2       171       172       193       192       255       256       277       276
 -1        22    1    0    1
 -2        24        25        46        45       108       109       130       129
 -1        23    1    0    1
 -2       108       109       130       129       192       193       214       213
 -1        24    1    0    1
 -2       192       193       214       213       276       277       298       297
 -1        25    1    0    1
 -2        45        46        67        66       129       130       151       150
 -1        26    1    0    1
 -2       129       130       151       150       213       214       235       234
 -1        27    1    0    1
 -2       213       214       235       234       297       298       319       318
 -1        28    1    0    1
 -2         4         5        26        25        88        89       110       109
 -1        29    1    0    1
 -2        88        89       110       109       172       173       194       193
 -1        30    1    0    1
 -2       172       173       194       193       256       257       278       277
 -1        31    1    0    1
 -2        25        26        47        46       109       110       131       130
 -1        32    1    0    1
 -2       109       110       131       130       193       194       215       214
 -1        33    1    0    1
 -2       193       194       215       214       277       278       299       298
 -1        34    1    0    1
 -2        46        47        68        67       130       131       152       151
 -1        35    1    0    1
 -2       130       131       152       151       214       215       236       235
 -1        36    1    0    1
 -2       214       215       236       235       298       299       320       319
 -1        37    1    0    1
 -2         5         6        27        26        89        90       111       110
 -1        38    1    0    1
 -2        89        90       111       110       173       174       195       194
 -1        39    1    0    1
 -2       173       174       195       194       257       258       279       278
 -1        40    1    0    1
 -2        26        27        48        47       110       111       132       131
 -1        41    1    0    1
 -2       110       111       132       131       194       195       216       215
 -1        42    1    0    1
 -2       194       195       216       215       278       279       300       299
 -1        43    1    0    1
 -2        47        48        69        68       131       132       153       152
 -1        44    1    0    1
 -2       131       132       153       152       215       216       237       236
 -1        45    1    0    1
 -2       215       216       237       236       299       300       321       320
 -1        46    1    0    1
 -2         6         7        28        27        90        91       112       111
 -1        47    1    0    1
 -2        90        91       112       111       174       175       196       195
 -1        48    1    0    1
 -2       174       175       196       195       258       259       280       279
 -1        49    1    0    1
 -2        27        28        49        48       111       112       133       132
 -1        50    1    0    1
 -2       111       112       133       132       195       196       217       216
 -1        51    1    0    1
 -2       195       196       217       216       279       280       301       300
 -1        52    1    0    1
 -2        48        49        70        69       132       133       154       153
 -1        53    1    0    1
 -2       132       133       154       153       216       217       238       237
 -1        54    1    0    1
 -2       216       217       238       237       300       301       322       321
 -1        55    1    0    1
 -2         7         8        29        28        91        92       113       112
 -1        56    1    0    1
 -2        91        92       113       112       175       176       197       196
 -1        57    1    0    1
 -2       175       176       197       196       259       260       281       280
 -1        58    1    0    1
 -2        28        29        50        49       112       113       134       133
 -1        59    1    0    1
 -2       112       113       134       133       196       197       218       217
 -1        60    1    0    1
 -2       196       197       218       217       280       281       302       301
 -1        61    1    0    1
 -2        49        50        71        70       133       134       155       154
 -1        62    1    0    1
 -2       133       134       155       154       217       218       239       238
 -1        63    1    0    1
 -2       217       218       239       238       301       302       323       322
 -1        64    1    0    1
 -2         8         9        30        29        92        93       114       113
 -1        65    1    0    1
 -2        92        93       114       113       176       177       198       197
 -1        66    1    0    1
 -2       176       177       198       197       260       261       282       281
 -1        67    1    0    1
 -2        29        30        51        50       113       114       135       134
 -1        68    1    0    1
 -2       113       114       135       134       197       198       219       218
 -1        69    1    0    1
 -2       197       198       219       218       281       282       303       302
 -1        70    1    0    1
 -2        50        51        72        71       134       135       156       155
 -1        71    1    0    1
 -2       134       135       156       155       218       219       240       239
 -1        72    1    0    1
 -2       218       219       240       239       302       303       324       323
 -1        73    1    0    1
 -2         9        10        31        30        93        94       115       114
 -1        74    1    0    1
 -2        93        94       115       114       177       178       199       198
 -1        75    1    0    1
 -2       177       178       199       198       261       262       283       282
 -1        76    1    0    1
 -2        30        31        52        51       114       115       136       135
 -1        77    1    0    1
 -2       114       115       136       135       198       199       220       219
 -1        78    1    0    1
 -2       198       199       220       219       282       283       304       303
 -1        79    1    0    1
 -2        51        52        73        72       135       136       157       156
 -1        80    1    0    1
 -2       135       136       157       156       219       220       241       240
 -1        81    1    0    1
 -2       219       220       241       240       303       304       325       324
 -1        82    1    0    1
 -2        10        11        32        31        94        95       116       115
 -1        83    1    0    1
 -2        94        95       116       115       178       179       200       199
 -1        84    1    0    1
 -2       178       179       200       199       262       263       284       283
 -1        85    1    0    1
 -2        31        32        53        52       115       116       137       136
 -1        86    1    0    1
 -2       115       116       137       136       199       200       221       220
 -1        87    1    0    1
 -2       199       200       221       220       283       284       305       304
 -1        88    1    0    1
 -2        52        53        74        73       136       137       158       157
 -1        89    1    0    1
 -2       136       137       158       157       220       221       242       241
 -1        90    1    0    1
 -2       220       221       242       241       304       305       326       325
 -1        91    1    0    1
 -2        11        12        33        32        95        96       117       116
 -1        92    1    0    1
 -2        95        96       117       116       179       180       201       200
 -1        93    1    0    1
 -2       179       180       201       200       263       264       285       284
 -1        94    1    0    1
 -2        32        33        54        53       116       117       138       137
 -1        95    1    0    1
 -2       116       117       138       137       200       201       222       221
 -1        96    1    0    1
 -2       200       201       222       221       284       285       306       305
 -1        97    1    0    1
 -2        53        54        75        74       137       138       159       158
 -1        98    1    0    1
 -2       137       138       159       158       221       222       243       242
 -1        99    1    0    1
 -2       221       222       243       242       305       306       327       326
 -1       100    1    0    1
 -2        12        13        34        33        96        97       118       117
 -1       101    1    0    1
 -2        96        97       118       117       180       181       202       201
 -1       102    1    0    1
 -2       180       181       202       201       264       265       286       285
 -1       103    1    0    1
 -2        33        34        55        54       117       118       139       138
 -1       104    1    0    1
 -2       117       118       139       138       201       202       223       222
 -1       105    1    0    1
 -2       201       202       223       222       285       286       307       306
 -1       106    1    0    1
 -2        54        55        76        75       138       139       160       159
 -1       107    1    0    1
 -2       138       139       160       159       222       223       244       243
 -1       108    1    0    1
 -2       222       223       244       243       306       307       328       327
 -1       109    1    0    1