    1C
    1UUSER                                                              
    1UDATE              23.may.2026                                     
    1UTIME              14:21:48                                        
    1UHOST                                                              
    1UPGM               CalculiX                                        
    1UVERSION           Version 2.22                             
    1UCOMPILETIME       Mon Aug  5 19:15:25 CEST 2024                    
    1UDIR                                                               
    1UDBN                                                               
    1UMAT    1SEAT                                                      
    2C                           836                                     1
 -1         1-1.35000E+02-2.75000E+01 0.00000E+00
 -1         2-1.35000E+02-2.75000E+01 6.00000E+00
 -1         3-1.35000E+02-2.75000E+01 1.20000E+01
 -1         4-1.35000E+02-2.75000E+01 1.80000E+01
 -1         5-1.35000E+02-2.20000E+01 0.00000E+00
 -1         6-1.35000E+02-2.20000E+01 7.08000E+00
 -1         7-1.35000E+02-2.20000E+01 1.41600E+01
 -1         8-1.35000E+02-2.20000E+01 2.12400E+01
 -1         9-1.35000E+02-1.65000E+01 0.00000E+00
 -1        10-1.35000E+02-1.65000E+01 7.92000E+00
 -1        11-1.35000E+02-1.65000E+01 1.58400E+01
 -1        12-1.35000E+02-1.65000E+01 2.37600E+01
 -1        13-1.35000E+02-1.10000E+01 0.00000E+00
 -1        14-1.35000E+02-1.10000E+01 8.52000E+00
 -1        15-1.35000E+02-1.10000E+01 1.70400E+01
 -1        16-1.35000E+02-1.10000E+01 2.55600E+01
 -1        17-1.35000E+02-5.50000E+00 0.00000E+00
 -1        18-1.35000E+02-5.50000E+00 8.88000E+00
 -1        19-1.35000E+02-5.50000E+00 1.77600E+01
 -1        20-1.35000E+02-5.50000E+00 2.66400E+01
 -1        21-1.35000E+02 0.00000E+00 0.00000E+00
 -1        22-1.35000E+02 0.00000E+00 9.00000E+00
 -1        23-1.35000E+02 0.00000E+00 1.80000E+01
 -1        24-1.35000E+02 0.00000E+00 2.70000E+01
 -1        25-1.35000E+02 5.50000E+00 0.00000E+00
 -1        26-1.35000E+02 5.50000E+00 8.88000E+00
 -1        27-1.35000E+02 5.50000E+00 1.77600E+01
 -1        28-1.35000E+02 5.50000E+00 2.66400E+01
 -1        29-1.35000E+02 1.10000E+01 0.00000E+00
 -1        30-1.35000E+02 1.10000E+01 8.52000E+00
 -1        31-1.35000E+02 1.10000E+01 1.70400E+01
 -1        32-1.35000E+02 1.10000E+01 2.55600E+01
 -1        33-1.35000E+02 1.65000E+01 0.00000E+00
 -1        34-1.35000E+02 1.65000E+01 7.92000E+00
 -1        35-1.35000E+02 1.65000E+01 1.58400E+01
 -1        36-1.35000E+02 1.65000E+01 2.37600E+01
 -1        37-1.35000E+02 2.20000E+01 0.00000E+00
 -1        38-1.35000E+02 2.20000E+01 7.08000E+00
 -1        39-1.35000E+02 2.20000E+01 1.41600E+01
 -1        40-1.35000E+02 2.20000E+01 2.12400E+01
 -1        41-1.35000E+02 2.75000E+01 0.00000E+00
 -1        42-1.35000E+02 2.75000E+01 6.00000E+00
 -1        43-1.35000E+02 2.75000E+01 1.20000E+01
 -1        44-1.35000E+02 2.75000E+01 1.80000E+01
 -1        45-1.20000E+02-2.79904E+01 0.00000E+00
 -1        46-1.20000E+02-2.79904E+01 2.87620E+00
 -1        47-1.20000E+02-2.79904E+01 5.75230E+00
 -1        48-1.20000E+02-2.79904E+01 8.62850E+00
 -1        49-1.20000E+02-2.23923E+01 0.00000E+00
 -1        50-1.20000E+02-2.23923E+01 3.95620E+00
 -1        51-1.20000E+02-2.23923E+01 7.91230E+00
 -1        52-1.20000E+02-2.23923E+01 1.18685E+01
 -1        53-1.20000E+02-1.67942E+01 0.00000E+00
 -1        54-1.20000E+02-1.67942E+01 4.79620E+00
 -1        55-1.20000E+02-1.67942E+01 9.59230E+00
 -1        56-1.20000E+02-1.67942E+01 1.43885E+01
 -1        57-1.20000E+02-1.11962E+01 0.00000E+00
 -1        58-1.20000E+02-1.11962E+01 5.39620E+00
 -1        59-1.20000E+02-1.11962E+01 1.07923E+01
 -1        60-1.20000E+02-1.11962E+01 1.61885E+01
 -1        61-1.20000E+02-5.59810E+00 0.00000E+00
 -1        62-1.20000E+02-5.59810E+00 5.75620E+00
 -1        63-1.20000E+02-5.59810E+00 1.15123E+01
 -1        64-1.20000E+02-5.59810E+00 1.72685E+01
 -1        65-1.20000E+02 0.00000E+00 0.00000E+00
 -1        66-1.20000E+02 0.00000E+00 5.87620E+00
 -1        67-1.20000E+02 0.00000E+00 1.17523E+01
 -1        68-1.20000E+02 0.00000E+00 1.76285E+01
 -1        69-1.20000E+02 5.59810E+00 0.00000E+00
 -1        70-1.20000E+02 5.59810E+00 5.75620E+00
 -1        71-1.20000E+02 5.59810E+00 1.15123E+01
 -1        72-1.20000E+02 5.59810E+00 1.72685E+01
 -1        73-1.20000E+02 1.11962E+01 0.00000E+00
 -1        74-1.20000E+02 1.11962E+01 5.39620E+00
 -1        75-1.20000E+02 1.11962E+01 1.07923E+01
 -1        76-1.20000E+02 1.11962E+01 1.61885E+01
 -1        77-1.20000E+02 1.67942E+01 0.00000E+00
 -1        78-1.20000E+02 1.67942E+01 4.79620E+00
 -1        79-1.20000E+02 1.67942E+01 9.59230E+00
 -1        80-1.20000E+02 1.67942E+01 1.43885E+01
 -1        81-1.20000E+02 2.23923E+01 0.00000E+00
 -1        82-1.20000E+02 2.23923E+01 3.95620E+00
 -1        83-1.20000E+02 2.23923E+01 7.91230E+00
 -1        84-1.20000E+02 2.23923E+01 1.18685E+01
 -1        85-1.20000E+02 2.79904E+01 0.00000E+00
 -1        86-1.20000E+02 2.79904E+01 2.87620E+00
 -1        87-1.20000E+02 2.79904E+01 5.75230E+00
 -1        88-1.20000E+02 2.79904E+01 8.62850E+00
 -1        89-1.05000E+02-2.93861E+01 0.00000E+00
 -1        90-1.05000E+02-2.93861E+01 1.33330E+00
 -1        91-1.05000E+02-2.93861E+01 2.66670E+00
 -1        92-1.05000E+02-2.93861E+01 4.00000E+00
 -1        93-1.05000E+02-2.35089E+01 0.00000E+00
 -1        94-1.05000E+02-2.35089E+01 1.99210E+00
 -1        95-1.05000E+02-2.35089E+01 3.98420E+00
 -1        96-1.05000E+02-2.35089E+01 5.97630E+00
 -1        97-1.05000E+02-1.76317E+01 0.00000E+00
 -1        98-1.05000E+02-1.76317E+01 2.83210E+00
 -1        99-1.05000E+02-1.76317E+01 5.66420E+00
 -1       100-1.05000E+02-1.76317E+01 8.49630E+00
 -1       101-1.05000E+02-1.17545E+01 0.00000E+00
 -1       102-1.05000E+02-1.17545E+01 3.43210E+00
 -1       103-1.05000E+02-1.17545E+01 6.86420E+00
 -1       104-1.05000E+02-1.17545E+01 1.02963E+01
 -1       105-1.05000E+02-5.87720E+00 0.00000E+00
 -1       106-1.05000E+02-5.87720E+00 3.79210E+00
 -1       107-1.05000E+02-5.87720E+00 7.58420E+00
 -1       108-1.05000E+02-5.87720E+00 1.13763E+01
 -1       109-1.05000E+02 0.00000E+00 0.00000E+00
 -1       110-1.05000E+02 0.00000E+00 3.91210E+00
 -1       111-1.05000E+02 0.00000E+00 7.82420E+00
 -1       112-1.05000E+02 0.00000E+00 1.17363E+01
 -1       113-1.05000E+02 5.87720E+00 0.00000E+00
 -1       114-1.05000E+02 5.87720E+00 3.79210E+00
 -1       115-1.05000E+02 5.87720E+00 7.58420E+00
 -1       116-1.05000E+02 5.87720E+00 1.13763E+01
 -1       117-1.05000E+02 1.17545E+01 0.00000E+00
 -1       118-1.05000E+02 1.17545E+01 3.43210E+00
 -1       119-1.05000E+02 1.17545E+01 6.86420E+00
 -1       120-1.05000E+02 1.17545E+01 1.02963E+01
 -1       121-1.05000E+02 1.76317E+01 0.00000E+00
 -1       122-1.05000E+02 1.76317E+01 2.83210E+00
 -1       123-1.05000E+02 1.76317E+01 5.66420E+00
 -1       124-1.05000E+02 1.76317E+01 8.49630E+00
 -1       125-1.05000E+02 2.35089E+01 0.00000E+00
 -1       126-1.05000E+02 2.35089E+01 1.99210E+00
 -1       127-1.05000E+02 2.35089E+01 3.98420E+00
 -1       128-1.05000E+02 2.35089E+01 5.97630E+00
 -1       129-1.05000E+02 2.93861E+01 0.00000E+00
 -1       130-1.05000E+02 2.93861E+01 1.33330E+00
 -1       131-1.05000E+02 2.93861E+01 2.66670E+00
 -1       132-1.05000E+02 2.93861E+01 4.00000E+00
 -1       133-9.00000E+01-3.15741E+01 0.00000E+00
 -1       134-9.00000E+01-3.15741E+01 1.33330E+00
 -1       135-9.00000E+01-3.15741E+01 2.66670E+00
 -1       136-9.00000E+01-3.15741E+01 4.00000E+00
 -1       137-9.00000E+01-2.52593E+01 0.00000E+00
 -1       138-9.00000E+01-2.52593E+01 1.33330E+00
 -1       139-9.00000E+01-2.52593E+01 2.66670E+00
 -1       140-9.00000E+01-2.52593E+01 4.00000E+00
 -1       141-9.00000E+01-1.89444E+01 0.00000E+00
 -1       142-9.00000E+01-1.89444E+01 2.02770E+00
 -1       143-9.00000E+01-1.89444E+01 4.05550E+00
 -1       144-9.00000E+01-1.89444E+01 6.08320E+00
 -1       145-9.00000E+01-1.26296E+01 0.00000E+00
 -1       146-9.00000E+01-1.26296E+01 2.62770E+00
 -1       147-9.00000E+01-1.26296E+01 5.25550E+00
 -1       148-9.00000E+01-1.26296E+01 7.88320E+00
 -1       149-9.00000E+01-6.31480E+00 0.00000E+00
 -1       150-9.00000E+01-6.31480E+00 2.98770E+00
 -1       151-9.00000E+01-6.31480E+00 5.97550E+00
 -1       152-9.00000E+01-6.31480E+00 8.96320E+00
 -1       153-9.00000E+01 0.00000E+00 0.00000E+00
 -1       154-9.00000E+01 0.00000E+00 3.10770E+00
 -1       155-9.00000E+01 0.00000E+00 6.21550E+00
 -1       156-9.00000E+01 0.00000E+00 9.32320E+00
 -1       157-9.00000E+01 6.31480E+00 0.00000E+00
 -1       158-9.00000E+01 6.31480E+00 2.98770E+00
 -1       159-9.00000E+01 6.31480E+00 5.97550E+00
 -1       160-9.00000E+01 6.31480E+00 8.96320E+00
 -1       161-9.00000E+01 1.26296E+01 0.00000E+00
 -1       162-9.00000E+01 1.26296E+01 2.62770E+00
 -1       163-9.00000E+01 1.26296E+01 5.25550E+00
 -1       164-9.00000E+01 1.26296E+01 7.88320E+00
 -1       165-9.00000E+01 1.89444E+01 0.00000E+00
 -1       166-9.00000E+01 1.89444E+01 2.02770E+00
 -1       167-9.00000E+01 1.89444E+01 4.05550E+00
 -1       168-9.00000E+01 1.89444E+01 6.08320E+00
 -1       169-9.00000E+01 2.52593E+01 0.00000E+00
 -1       170-9.00000E+01 2.52593E+01 1.33330E+00
 -1       171-9.00000E+01 2.52593E+01 2.66670E+00
 -1       172-9.00000E+01 2.52593E+01 4.00000E+00
 -1       173-9.00000E+01 3.15741E+01 0.00000E+00
 -1       174-9.00000E+01 3.15741E+01 1.33330E+00
 -1       175-9.00000E+01 3.15741E+01 2.66670E+00
 -1       176-9.00000E+01 3.15741E+01 4.00000E+00
 -1       177-7.50000E+01-3.44410E+01 0.00000E+00
 -1       178-7.50000E+01-3.44410E+01 1.33330E+00
 -1       179-7.50000E+01-3.44410E+01 2.66670E+00
 -1       180-7.50000E+01-3.44410E+01 4.00000E+00
 -1       181-7.50000E+01-2.75528E+01 0.00000E+00
 -1       182-7.50000E+01-2.75528E+01 1.54240E+00
 -1       183-7.50000E+01-2.75528E+01 3.08480E+00
 -1       184-7.50000E+01-2.75528E+01 4.62720E+00
 -1       185-7.50000E+01-2.06646E+01 0.00000E+00
 -1       186-7.50000E+01-2.06646E+01 2.38240E+00
 -1       187-7.50000E+01-2.06646E+01 4.76480E+00
 -1       188-7.50000E+01-2.06646E+01 7.14720E+00
 -1       189-7.50000E+01-1.37764E+01 0.00000E+00
 -1       190-7.50000E+01-1.37764E+01 2.98240E+00
 -1       191-7.50000E+01-1.37764E+01 5.96480E+00
 -1       192-7.50000E+01-1.37764E+01 8.94720E+00
 -1       193-7.50000E+01-6.88820E+00 0.00000E+00
 -1       194-7.50000E+01-6.88820E+00 3.34240E+00
 -1       195-7.50000E+01-6.88820E+00 6.68480E+00
 -1       196-7.50000E+01-6.88820E+00 1.00272E+01
 -1       197-7.50000E+01 0.00000E+00 0.00000E+00
 -1       198-7.50000E+01 0.00000E+00 3.46240E+00
 -1       199-7.50000E+01 0.00000E+00 6.92480E+00
 -1       200-7.50000E+01 0.00000E+00 1.03872E+01
 -1       201-7.50000E+01 6.88820E+00 0.00000E+00
 -1       202-7.50000E+01 6.88820E+00 3.34240E+00
 -1       203-7.50000E+01 6.88820E+00 6.68480E+00
 -1       204-7.50000E+01 6.88820E+00 1.00272E+01
 -1       205-7.50000E+01 1.37764E+01 0.00000E+00
 -1       206-7.50000E+01 1.37764E+01 2.98240E+00
 -1       207-7.50000E+01 1.37764E+01 5.96480E+00
 -1       208-7.50000E+01 1.37764E+01 8.94720E+00
 -1       209-7.50000E+01 2.06646E+01 0.00000E+00
 -1       210-7.50000E+01 2.06646E+01 2.38240E+00
 -1       211-7.50000E+01 2.06646E+01 4.76480E+00
 -1       212-7.50000E+01 2.06646E+01 7.14720E+00
 -1       213-7.50000E+01 2.75528E+01 0.00000E+00
 -1       214-7.50000E+01 2.75528E+01 1.54240E+00
 -1       215-7.50000E+01 2.75528E+01 3.08480E+00
 -1       216-7.50000E+01 2.75528E+01 4.62720E+00
 -1       217-7.50000E+01 3.44410E+01 0.00000E+00
 -1       218-7.50000E+01 3.44410E+01 1.33330E+00
 -1       219-7.50000E+01 3.44410E+01 2.66670E+00
 -1       220-7.50000E+01 3.44410E+01 4.00000E+00
 -1       221-6.00000E+01-3.78738E+01 0.00000E+00
 -1       222-6.00000E+01-3.78738E+01 1.47250E+00
 -1       223-6.00000E+01-3.78738E+01 2.94500E+00
 -1       224-6.00000E+01-3.78738E+01 4.41750E+00
 -1       225-6.00000E+01-3.02990E+01 0.00000E+00
 -1       226-6.00000E+01-3.02990E+01 2.55250E+00
 -1       227-6.00000E+01-3.02990E+01 5.10500E+00
 -1       228-6.00000E+01-3.02990E+01 7.65750E+00
 -1       229-6.00000E+01-2.27243E+01 0.00000E+00
 -1       230-6.00000E+01-2.27243E+01 3.39250E+00
 -1       231-6.00000E+01-2.27243E+01 6.78500E+00
 -1       232-6.00000E+01-2.27243E+01 1.01775E+01
 -1       233-6.00000E+01-1.51495E+01 0.00000E+00
 -1       234-6.00000E+01-1.51495E+01 3.99250E+00
 -1       235-6.00000E+01-1.51495E+01 7.98500E+00
 -1       236-6.00000E+01-1.51495E+01 1.19775E+01
 -1       237-6.00000E+01-7.57480E+00 0.00000E+00
 -1       238-6.00000E+01-7.57480E+00 4.35250E+00
 -1       239-6.00000E+01-7.57480E+00 8.70500E+00
 -1       240-6.00000E+01-7.57480E+00 1.30575E+01
 -1       241-6.00000E+01 0.00000E+00 0.00000E+00
 -1       242-6.00000E+01 0.00000E+00 4.47250E+00
 -1       243-6.00000E+01 0.00000E+00 8.94500E+00
 -1       244-6.00000E+01 0.00000E+00 1.34175E+01
 -1       245-6.00000E+01 7.57480E+00 0.00000E+00
 -1       246-6.00000E+01 7.57480E+00 4.35250E+00
 -1       247-6.00000E+01 7.57480E+00 8.70500E+00
 -1       248-6.00000E+01 7.57480E+00 1.30575E+01
 -1       249-6.00000E+01 1.51495E+01 0.00000E+00
 -1       250-6.00000E+01 1.51495E+01 3.99250E+00
 -1       251-6.00000E+01 1.51495E+01 7.98500E+00
 -1       252-6.00000E+01 1.51495E+01 1.19775E+01
 -1       253-6.00000E+01 2.27243E+01 0.00000E+00
 -1       254-6.00000E+01 2.27243E+01 3.39250E+00
 -1       255-6.00000E+01 2.27243E+01 6.78500E+00
 -1       256-6.00000E+01 2.27243E+01 1.01775E+01
 -1       257-6.00000E+01 3.02990E+01 0.00000E+00
 -1       258-6.00000E+01 3.02990E+01 2.55250E+00
 -1       259-6.00000E+01 3.02990E+01 5.10500E+00
 -1       260-6.00000E+01 3.02990E+01 7.65750E+00
 -1       261-6.00000E+01 3.78738E+01 0.00000E+00
 -1       262-6.00000E+01 3.78738E+01 1.47250E+00
 -1       263-6.00000E+01 3.78738E+01 2.94500E+00
 -1       264-6.00000E+01 3.78738E+01 4.41750E+00
 -1       265-4.50000E+01-4.17593E+01 0.00000E+00
 -1       266-4.50000E+01-4.17593E+01 2.70710E+00
 -1       267-4.50000E+01-4.17593E+01 5.41410E+00
 -1       268-4.50000E+01-4.17593E+01 8.12120E+00
 -1       269-4.50000E+01-3.34074E+01 0.00000E+00
 -1       270-4.50000E+01-3.34074E+01 3.78710E+00
 -1       271-4.50000E+01-3.34074E+01 7.57410E+00
 -1       272-4.50000E+01-3.34074E+01 1.13612E+01
 -1       273-4.50000E+01-2.50556E+01 0.00000E+00
 -1       274-4.50000E+01-2.50556E+01 4.62710E+00
 -1       275-4.50000E+01-2.50556E+01 9.25410E+00
 -1       276-4.50000E+01-2.50556E+01 1.38812E+01
 -1       277-4.50000E+01-1.67037E+01 0.00000E+00
 -1       278-4.50000E+01-1.67037E+01 5.22710E+00
 -1       279-4.50000E+01-1.67037E+01 1.04541E+01
 -1       280-4.50000E+01-1.67037E+01 1.56812E+01
 -1       281-4.50000E+01-8.35190E+00 0.00000E+00
 -1       282-4.50000E+01-8.35190E+00 5.58710E+00
 -1       283-4.50000E+01-8.35190E+00 1.11741E+01
 -1       284-4.50000E+01-8.35190E+00 1.67612E+01
 -1       285-4.50000E+01 0.00000E+00 0.00000E+00
 -1       286-4.50000E+01 0.00000E+00 5.70710E+00
 -1       287-4.50000E+01 0.00000E+00 1.14141E+01
 -1       288-4.50000E+01 0.00000E+00 1.71212E+01
 -1       289-4.50000E+01 8.35190E+00 0.00000E+00
 -1       290-4.50000E+01 8.35190E+00 5.58710E+00
 -1       291-4.50000E+01 8.35190E+00 1.11741E+01
 -1       292-4.50000E+01 8.35190E+00 1.67612E+01
 -1       293-4.50000E+01 1.67037E+01 0.00000E+00
 -1       294-4.50000E+01 1.67037E+01 5.22710E+00
 -1       295-4.50000E+01 1.67037E+01 1.04541E+01
 -1       296-4.50000E+01 1.67037E+01 1.56812E+01
 -1       297-4.50000E+01 2.50556E+01 0.00000E+00
 -1       298-4.50000E+01 2.50556E+01 4.62710E+00
 -1       299-4.50000E+01 2.50556E+01 9.25410E+00
 -1       300-4.50000E+01 2.50556E+01 1.38812E+01
 -1       301-4.50000E+01 3.34074E+01 0.00000E+00
 -1       302-4.50000E+01 3.34074E+01 3.78710E+00
 -1       303-4.50000E+01 3.34074E+01 7.57410E+00
 -1       304-4.50000E+01 3.34074E+01 1.13612E+01
 -1       305-4.50000E+01 4.17593E+01 0.00000E+00
 -1       306-4.50000E+01 4.17593E+01 2.70710E+00
 -1       307-4.50000E+01 4.17593E+01 5.41410E+00
 -1       308-4.50000E+01 4.17593E+01 8.12120E+00
 -1       309-3.00000E+01-4.59842E+01 0.00000E+00
 -1       310-3.00000E+01-4.59842E+01 4.16610E+00
 -1       311-3.00000E+01-4.59842E+01 8.33220E+00
 -1       312-3.00000E+01-4.59842E+01 1.24983E+01
 -1       313-3.00000E+01-3.67874E+01 0.00000E+00
 -1       314-3.00000E+01-3.67874E+01 5.24610E+00
 -1       315-3.00000E+01-3.67874E+01 1.04922E+01
 -1       316-3.00000E+01-3.67874E+01 1.57383E+01
 -1       317-3.00000E+01-2.75905E+01 0.00000E+00
 -1       318-3.00000E+01-2.75905E+01 6.08610E+00
 -1       319-3.00000E+01-2.75905E+01 1.21722E+01
 -1       320-3.00000E+01-2.75905E+01 1.82583E+01
 -1       321-3.00000E+01-1.83937E+01 0.00000E+00
 -1       322-3.00000E+01-1.83937E+01 6.68610E+00
 -1       323-3.00000E+01-1.83937E+01 1.33722E+01
 -1       324-3.00000E+01-1.83937E+01 2.00583E+01
 -1       325-3.00000E+01-9.19680E+00 0.00000E+00
 -1       326-3.00000E+01-9.19680E+00 7.04610E+00
 -1       327-3.00000E+01-9.19680E+00 1.40922E+01
 -1       328-3.00000E+01-9.19680E+00 2.11383E+01
 -1       329-3.00000E+01 0.00000E+00 0.00000E+00
 -1       330-3.00000E+01 0.00000E+00 7.16610E+00
 -1       331-3.00000E+01 0.00000E+00 1.43322E+01
 -1       332-3.00000E+01 0.00000E+00 2.14983E+01
 -1       333-3.00000E+01 9.19680E+00 0.00000E+00
 -1       334-3.00000E+01 9.19680E+00 7.04610E+00
 -1       335-3.00000E+01 9.19680E+00 1.40922E+01
 -1       336-3.00000E+01 9.19680E+00 2.11383E+01
 -1       337-3.00000E+01 1.83937E+01 0.00000E+00
 -1       338-3.00000E+01 1.83937E+01 6.68610E+00
 -1       339-3.00000E+01 1.83937E+01 1.33722E+01
 -1       340-3.00000E+01 1.83937E+01 2.00583E+01
 -1       341-3.00000E+01 2.75905E+01 0.00000E+00
 -1       342-3.00000E+01 2.75905E+01 6.08610E+00
 -1       343-3.00000E+01 2.75905E+01 1.21722E+01
 -1       344-3.00000E+01 2.75905E+01 1.82583E+01
 -1       345-3.00000E+01 3.67874E+01 0.00000E+00
 -1       346-3.00000E+01 3.67874E+01 5.24610E+00
 -1       347-3.00000E+01 3.67874E+01 1.04922E+01
 -1       348-3.00000E+01 3.67874E+01 1.57383E+01
 -1       349-3.00000E+01 4.59842E+01 0.00000E+00
 -1       350-3.00000E+01 4.59842E+01 4.16610E+00
 -1       351-3.00000E+01 4.59842E+01 8.33220E+00
 -1       352-3.00000E+01 4.59842E+01 1.24983E+01
 -1       353-1.50000E+01-5.04355E+01 0.00000E+00
 -1       354-1.50000E+01-5.04355E+01 5.84960E+00
 -1       355-1.50000E+01-5.04355E+01 1.16992E+01
 -1       356-1.50000E+01-5.04355E+01 1.75488E+01
 -1       357-1.50000E+01-4.03484E+01 0.00000E+00
 -1       358-1.50000E+01-4.03484E+01 6.92960E+00
 -1       359-1.50000E+01-4.03484E+01 1.38592E+01
 -1       360-1.50000E+01-4.03484E+01 2.07888E+01
 -1       361-1.50000E+01-3.02613E+01 0.00000E+00
 -1       362-1.50000E+01-3.02613E+01 7.76960E+00
 -1       363-1.50000E+01-3.02613E+01 1.55392E+01
 -1       364-1.50000E+01-3.02613E+01 2.33088E+01
 -1       365-1.50000E+01-2.01742E+01 0.00000E+00
 -1       366-1.50000E+01-2.01742E+01 8.36960E+00
 -1       367-1.50000E+01-2.01742E+01 1.67392E+01
 -1       368-1.50000E+01-2.01742E+01 2.51088E+01
 -1       369-1.50000E+01-1.00871E+01 0.00000E+00
 -1       370-1.50000E+01-1.00871E+01 8.72960E+00
 -1       371-1.50000E+01-1.00871E+01 1.74592E+01
 -1       372-1.50000E+01-1.00871E+01 2.61888E+01
 -1       373-1.50000E+01 0.00000E+00 0.00000E+00
 -1       374-1.50000E+01 0.00000E+00 8.84960E+00
 -1       375-1.50000E+01 0.00000E+00 1.76992E+01
 -1       376-1.50000E+01 0.00000E+00 2.65488E+01
 -1       377-1.50000E+01 1.00871E+01 0.00000E+00
 -1       378-1.50000E+01 1.00871E+01 8.72960E+00
 -1       379-1.50000E+01 1.00871E+01 1.74592E+01
 -1       380-1.50000E+01 1.00871E+01 2.61888E+01
 -1       381-1.50000E+01 2.01742E+01 0.00000E+00
 -1       382-1.50000E+01 2.01742E+01 8.36960E+00
 -1       383-1.50000E+01 2.01742E+01 1.67392E+01
 -1       384-1.50000E+01 2.01742E+01 2.51088E+01
 -1       385-1.50000E+01 3.02613E+01 0.00000E+00
 -1       386-1.50000E+01 3.02613E+01 7.76960E+00
 -1       387-1.50000E+01 3.02613E+01 1.55392E+01
 -1       388-1.50000E+01 3.02613E+01 2.33088E+01
 -1       389-1.50000E+01 4.03484E+01 0.00000E+00
 -1       390-1.50000E+01 4.03484E+01 6.92960E+00
 -1       391-1.50000E+01 4.03484E+01 1.38592E+01
 -1       392-1.50000E+01 4.03484E+01 2.07888E+01
 -1       393-1.50000E+01 5.04355E+01 0.00000E+00
 -1       394-1.50000E+01 5.04355E+01 5.84960E+00
 -1       395-1.50000E+01 5.04355E+01 1.16992E+01
 -1       396-1.50000E+01 5.04355E+01 1.75488E+01
 -1       397 0.00000E+00-5.50000E+01 0.00000E+00
 -1       398 0.00000E+00-5.50000E+01 7.75760E+00
 -1       399 0.00000E+00-5.50000E+01 1.55152E+01
 -1       400 0.00000E+00-5.50000E+01 2.32727E+01
 -1       401 0.00000E+00-4.40000E+01 0.00000E+00
 -1       402 0.00000E+00-4.40000E+01 8.83760E+00
 -1       403 0.00000E+00-4.40000E+01 1.76752E+01
 -1       404 0.00000E+00-4.40000E+01 2.65127E+01
 -1       405 0.00000E+00-3.30000E+01 0.00000E+00
 -1       406 0.00000E+00-3.30000E+01 9.67760E+00
 -1       407 0.00000E+00-3.30000E+01 1.93552E+01
 -1       408 0.00000E+00-3.30000E+01 2.90327E+01
 -1       409 0.00000E+00-2.20000E+01 0.00000E+00
 -1       410 0.00000E+00-2.20000E+01 1.02776E+01
 -1       411 0.00000E+00-2.20000E+01 2.05552E+01
 -1       412 0.00000E+00-2.20000E+01 3.08327E+01
 -1       413 0.00000E+00-1.10000E+01 0.00000E+00
 -1       414 0.00000E+00-1.10000E+01 1.06376E+01
 -1       415 0.00000E+00-1.10000E+01 2.12752E+01
 -1       416 0.00000E+00-1.10000E+01 3.19127E+01
 -1       417 0.00000E+00 0.00000E+00 0.00000E+00
 -1       418 0.00000E+00 0.00000E+00 1.07576E+01
 -1       419 0.00000E+00 0.00000E+00 2.15152E+01
 -1       420 0.00000E+00 0.00000E+00 3.22727E+01
 -1       421 0.00000E+00 1.10000E+01 0.00000E+00
 -1       422 0.00000E+00 1.10000E+01 1.06376E+01
 -1       423 0.00000E+00 1.10000E+01 2.12752E+01
 -1       424 0.00000E+00 1.10000E+01 3.19127E+01
 -1       425 0.00000E+00 2.20000E+01 0.00000E+00
 -1       426 0.00000E+00 2.20000E+01 1.02776E+01
 -1       427 0.00000E+00 2.20000E+01 2.05552E+01
 -1       428 0.00000E+00 2.20000E+01 3.08327E+01
 -1       429 0.00000E+00 3.30000E+01 0.00000E+00
 -1       430 0.00000E+00 3.30000E+01 9.67760E+00
 -1       431 0.00000E+00 3.30000E+01 1.93552E+01
 -1       432 0.00000E+00 3.30000E+01 2.90327E+01
 -1       433 0.00000E+00 4.40000E+01 0.00000E+00
 -1       434 0.00000E+00 4.40000E+01 8.83760E+00
 -1       435 0.00000E+00 4.40000E+01 1.76752E+01
 -1       436 0.00000E+00 4.40000E+01 2.65127E+01
 -1       437 0.00000E+00 5.50000E+01 0.00000E+00
 -1       438 0.00000E+00 5.50000E+01 7.75760E+00
 -1       439 0.00000E+00 5.50000E+01 1.55152E+01
 -1       440 0.00000E+00 5.50000E+01 2.32727E+01
 -1       441 1.50000E+01-5.95645E+01 0.00000E+00
 -1       442 1.50000E+01-5.95645E+01 9.66570E+00
 -1       443 1.50000E+01-5.95645E+01 1.93313E+01
 -1       444 1.50000E+01-5.95645E+01 2.89970E+01
 -1       445 1.50000E+01-4.76516E+01 0.00000E+00
 -1       446 1.50000E+01-4.76516E+01 1.07457E+01
 -1       447 1.50000E+01-4.76516E+01 2.14913E+01
 -1       448 1.50000E+01-4.76516E+01 3.22370E+01
 -1       449 1.50000E+01-3.57387E+01 0.00000E+00
 -1       450 1.50000E+01-3.57387E+01 1.15857E+01
 -1       451 1.50000E+01-3.57387E+01 2.31713E+01
 -1       452 1.50000E+01-3.57387E+01 3.47570E+01
 -1       453 1.50000E+01-2.38258E+01 0.00000E+00
 -1       454 1.50000E+01-2.38258E+01 1.21857E+01
 -1       455 1.50000E+01-2.38258E+01 2.43713E+01
 -1       456 1.50000E+01-2.38258E+01 3.65570E+01
 -1       457 1.50000E+01-1.19129E+01 0.00000E+00
 -1       458 1.50000E+01-1.19129E+01 1.25457E+01
 -1       459 1.50000E+01-1.19129E+01 2.50913E+01
 -1       460 1.50000E+01-1.19129E+01 3.76370E+01
 -1       461 1.50000E+01 0.00000E+00 0.00000E+00
 -1       462 1.50000E+01 0.00000E+00 1.26657E+01
 -1       463 1.50000E+01 0.00000E+00 2.53313E+01
 -1       464 1.50000E+01 0.00000E+00 3.79970E+01
 -1       465 1.50000E+01 1.19129E+01 0.00000E+00
 -1       466 1.50000E+01 1.19129E+01 1.25457E+01
 -1       467 1.50000E+01 1.19129E+01 2.50913E+01
 -1       468 1.50000E+01 1.19129E+01 3.76370E+01
 -1       469 1.50000E+01 2.38258E+01 0.00000E+00
 -1       470 1.50000E+01 2.38258E+01 1.21857E+01
 -1       471 1.50000E+01 2.38258E+01 2.43713E+01
 -1       472 1.50000E+01 2.38258E+01 3.65570E+01
 -1       473 1.50000E+01 3.57387E+01 0.00000E+00
 -1       474 1.50000E+01 3.57387E+01 1.15857E+01
 -1       475 1.50000E+01 3.57387E+01 2.31713E+01
 -1       476 1.50000E+01 3.57387E+01 3.47570E+01
 -1       477 1.50000E+01 4.76516E+01 0.00000E+00
 -1       478 1.50000E+01 4.76516E+01 1.07457E+01
 -1       479 1.50000E+01 4.76516E+01 2.14913E+01
 -1       480 1.50000E+01 4.76516E+01 3.22370E+01
 -1       481 1.50000E+01 5.95645E+01 0.00000E+00
 -1       482 1.50000E+01 5.95645E+01 9.66570E+00
 -1       483 1.50000E+01 5.95645E+01 1.93313E+01
 -1       484 1.50000E+01 5.95645E+01 2.89970E+01
 -1       485 3.00000E+01-6.40158E+01 0.00000E+00
 -1       486 3.00000E+01-6.40158E+01 9.54370E+00
 -1       487 3.00000E+01-6.40158E+01 1.90874E+01
 -1       488 3.00000E+01-6.40158E+01 2.86312E+01
 -1       489 3.00000E+01-5.12126E+01 0.00000E+00
 -1       490 3.00000E+01-5.12126E+01 1.06237E+01
 -1       491 3.00000E+01-5.12126E+01 2.12474E+01
 -1       492 3.00000E+01-5.12126E+01 3.18712E+01
 -1       493 3.00000E+01-3.84095E+01 0.00000E+00
 -1       494 3.00000E+01-3.84095E+01 1.14637E+01
 -1       495 3.00000E+01-3.84095E+01 2.29274E+01
 -1       496 3.00000E+01-3.84095E+01 3.43912E+01
 -1       497 3.00000E+01-2.56063E+01 0.00000E+00
 -1       498 3.00000E+01-2.56063E+01 1.20637E+01
 -1       499 3.00000E+01-2.56063E+01 2.41274E+01
 -1       500 3.00000E+01-2.56063E+01 3.61912E+01
 -1       501 3.00000E+01-1.28032E+01 0.00000E+00
 -1       502 3.00000E+01-1.28032E+01 1.24237E+01
 -1       503 3.00000E+01-1.28032E+01 2.48474E+01
 -1       504 3.00000E+01-1.28032E+01 3.72712E+01
 -1       505 3.00000E+01 0.00000E+00 0.00000E+00
 -1       506 3.00000E+01 0.00000E+00 1.25437E+01
 -1       507 3.00000E+01 0.00000E+00 2.50874E+01
 -1       508 3.00000E+01 0.00000E+00 3.76312E+01
 -1       509 3.00000E+01 1.28032E+01 0.00000E+00
 -1       510 3.00000E+01 1.28032E+01 1.24237E+01
 -1       511 3.00000E+01 1.28032E+01 2.48474E+01
 -1       512 3.00000E+01 1.28032E+01 3.72712E+01
 -1       513 3.00000E+01 2.56063E+01 0.00000E+00
 -1       514 3.00000E+01 2.56063E+01 1.20637E+01
 -1       515 3.00000E+01 2.56063E+01 2.41274E+01
 -1       516 3.00000E+01 2.56063E+01 3.61912E+01
 -1       517 3.00000E+01 3.84095E+01 0.00000E+00
 -1       518 3.00000E+01 3.84095E+01 1.14637E+01
 -1       519 3.00000E+01 3.84095E+01 2.29274E+01
 -1       520 3.00000E+01 3.84095E+01 3.43912E+01
 -1       521 3.00000E+01 5.12126E+01 0.00000E+00
 -1       522 3.00000E+01 5.12126E+01 1.06237E+01
 -1       523 3.00000E+01 5.12126E+01 2.12474E+01
 -1       524 3.00000E+01 5.12126E+01 3.18712E+01
 -1       525 3.00000E+01 6.40158E+01 0.00000E+00
 -1       526 3.00000E+01 6.40158E+01 9.54370E+00
 -1       527 3.00000E+01 6.40158E+01 1.90874E+01
 -1       528 3.00000E+01 6.40158E+01 2.86312E+01
 -1       529 4.50000E+01-6.82407E+01 0.00000E+00
 -1       530 4.50000E+01-6.82407E+01 9.21860E+00
 -1       531 4.50000E+01-6.82407E+01 1.84371E+01
 -1       532 4.50000E+01-6.82407E+01 2.76557E+01
 -1       533 4.50000E+01-5.45926E+01 0.00000E+00
 -1       534 4.50000E+01-5.45926E+01 1.02986E+01
 -1       535 4.50000E+01-5.45926E+01 2.05971E+01
 -1       536 4.50000E+01-5.45926E+01 3.08957E+01
 -1       537 4.50000E+01-4.09444E+01 0.00000E+00
 -1       538 4.50000E+01-4.09444E+01 1.11386E+01
 -1       539 4.50000E+01-4.09444E+01 2.22771E+01
 -1       540 4.50000E+01-4.09444E+01 3.34157E+01
 -1       541 4.50000E+01-2.72963E+01 0.00000E+00
 -1       542 4.50000E+01-2.72963E+01 1.17386E+01
 -1       543 4.50000E+01-2.72963E+01 2.34771E+01
 -1       544 4.50000E+01-2.72963E+01 3.52157E+01
 -1       545 4.50000E+01-1.36481E+01 0.00000E+00
 -1       546 4.50000E+01-1.36481E+01 1.20986E+01
 -1       547 4.50000E+01-1.36481E+01 2.41971E+01
 -1       548 4.50000E+01-1.36481E+01 3.62957E+01
 -1       549 4.50000E+01 0.00000E+00 0.00000E+00
 -1       550 4.50000E+01 0.00000E+00 1.22186E+01
 -1       551 4.50000E+01 0.00000E+00 2.44371E+01
 -1       552 4.50000E+01 0.00000E+00 3.66557E+01
 -1       553 4.50000E+01 1.36481E+01 0.00000E+00
 -1       554 4.50000E+01 1.36481E+01 1.20986E+01
 -1       555 4.50000E+01 1.36481E+01 2.41971E+01
 -1       556 4.50000E+01 1.36481E+01 3.62957E+01
 -1       557 4.50000E+01 2.72963E+01 0.00000E+00
 -1       558 4.50000E+01 2.72963E+01 1.17386E+01
 -1       559 4.50000E+01 2.72963E+01 2.34771E+01
 -1       560 4.50000E+01 2.72963E+01 3.52157E+01
 -1       561 4.50000E+01 4.09444E+01 0.00000E+00
 -1       562 4.50000E+01 4.09444E+01 1.11386E+01
 -1       563 4.50000E+01 4.09444E+01 2.22771E+01
 -1       564 4.50000E+01 4.09444E+01 3.34157E+01
 -1       565 4.50000E+01 5.45926E+01 0.00000E+00
 -1       566 4.50000E+01 5.45926E+01 1.02986E+01
 -1       567 4.50000E+01 5.45926E+01 2.05971E+01
 -1       568 4.50000E+01 5.45926E+01 3.08957E+01
 -1       569 4.50000E+01 6.82407E+01 0.00000E+00
 -1       570 4.50000E+01 6.82407E+01 9.21860E+00
 -1       571 4.50000E+01 6.82407E+01 1.84371E+01
 -1       572 4.50000E+01 6.82407E+01 2.76557E+01
 -1       573 6.00000E+01-7.21262E+01 0.00000E+00
 -1       574 6.00000E+01-7.21262E+01 8.69020E+00
 -1       575 6.00000E+01-7.21262E+01 1.73804E+01
 -1       576 6.00000E+01-7.21262E+01 2.60706E+01
 -1       577 6.00000E+01-5.77010E+01 0.00000E+00
 -1       578 6.00000E+01-5.77010E+01 9.77020E+00
 -1       579 6.00000E+01-5.77010E+01 1.95404E+01
 -1       580 6.00000E+01-5.77010E+01 2.93106E+01
 -1       581 6.00000E+01-4.32757E+01 0.00000E+00
 -1       582 6.00000E+01-4.32757E+01 1.06102E+01
 -1       583 6.00000E+01-4.32757E+01 2.12204E+01